 Gaussian 09, Revision D.01,
 Gaussian 09:  ES64L-G09RevD.01 24-Apr-2013

 -------------------
 #n PBEPBE/Def2QZVPP
 -------------------

 -------------------
 Dichloromethane scf
 -------------------
 Symbolic Z-matrix:
 Charge =  0 Multiplicity = 1

                         Standard orientation:
 ---------------------------------------------------------------------
 Center     Atomic      Atomic             Coordinates (Angstroms)
 Number     Number       Type             X           Y           Z
 ---------------------------------------------------------------------
      1          6           0       -0.000005    0.800497   -0.000002
      2         17           0        1.451716   -0.226029    0.000000
      3         17           0       -1.451714   -0.226030    0.000000
      4          1           0       -0.000003    1.441007    0.905831
      5          1           0       -0.000004    1.441013   -0.905820
 ---------------------------------------------------------------------

 SCF Done:  E(RPBE-PBE) =  -959.350058275     A.U. after   12 cycles

 The electronic state is 1-A.
 Alpha  occ. eigenvalues -- -100.67986-100.67985 -10.01282  -9.19016  -9.19016
 Alpha  occ. eigenvalues --   -7.01454  -7.01454  -7.00371  -7.00371  -7.00324
 Alpha  occ. eigenvalues --   -7.00324  -0.83068  -0.75622  -0.60503  -0.44298
 Alpha  occ. eigenvalues --   -0.42587  -0.40969  -0.29834  -0.28975  -0.27223
 Alpha  occ. eigenvalues --   -0.27005
 Alpha virt. eigenvalues --   -0.05291  -0.02101   0.00652   0.03508   0.08217
 Alpha virt. eigenvalues --    0.08749   0.12819   0.14334   0.14490   0.18043
 Alpha virt. eigenvalues --    0.18176   0.18577   0.21286   0.21946   0.22787

 Mulliken charges:
               1
     1  C    0.114893
     2  Cl  -0.133766
     3  Cl  -0.133761
     4  H    0.076316
     5  H    0.076317
 Sum of Mulliken charges =   0.00000

 Dipole moment (field-independent basis, Debye):
    X=              0.0000    Y=              1.6394    Z=              0.0000  Tot=              1.6394
 Quadrupole moment (field-independent basis, Debye-Ang):
   XX=            -33.9050   YY=            -29.5694   ZZ=            -31.5276
   XY=              0.0000   XZ=              0.0000   YZ=              0.0000

 Normal termination of Gaussian 09 at Thu Jan 11 15:52:40 2018.
