 Gaussian 09, Revision D.01,
 Gaussian 09:  ES64L-G09RevD.01 24-Apr-2013

 -------------------
 #n CCSD-T/Def2TZVPP
 -------------------

 -------------------
 Dichloromethane scf
 -------------------
 Symbolic Z-matrix:
 Charge =  0 Multiplicity = 1

                         Standard orientation:
 ---------------------------------------------------------------------
 Center     Atomic      Atomic             Coordinates (Angstroms)
 Number     Number       Type             X           Y           Z
 ---------------------------------------------------------------------
      1          6           0       -0.000005    0.800497   -0.000002
      2         17           0        1.451716   -0.226029    0.000000
      3         17           0       -1.451714   -0.226030    0.000000
      4          1           0       -0.000003    1.441007    0.905831
      5          1           0       -0.000004    1.441013   -0.905820
 ---------------------------------------------------------------------

 SCF Done:  E(RHF) =  -958.061026421     A.U. after   11 cycles
 E2 =    -0.5545454391D+00 EUMP2 =    -0.95861557186000D+03
 CCSD(T)= -0.95868135731D+03

 The electronic state is 1-A.
 Alpha  occ. eigenvalues -- -104.84420-104.84419 -11.36985 -10.57212 -10.57211
 Alpha  occ. eigenvalues --   -8.03899  -8.03899  -8.03739  -8.03739  -8.03731
 Alpha  occ. eigenvalues --   -8.03731  -1.18780  -1.09167  -0.89101  -0.66387
 Alpha  occ. eigenvalues --   -0.61716  -0.57999  -0.47280  -0.47072  -0.44500
 Alpha  occ. eigenvalues --   -0.44266
 Alpha virt. eigenvalues --    0.13120   0.17541   0.18018   0.18814   0.28171
 Alpha virt. eigenvalues --    0.30831   0.35292   0.36906   0.43624   0.46692
 Alpha virt. eigenvalues --    0.48521   0.50348   0.51563   0.52932   0.53827

 Mulliken charges:
               1
     1  C    0.005414
     2  Cl  -0.117210
     3  Cl  -0.117204
     4  H    0.114501
     5  H    0.114499
 Sum of Mulliken charges =   0.00000

 Dipole moment (field-independent basis, Debye):
    X=              0.0000    Y=              1.9177    Z=              0.0000  Tot=              1.9177
 Quadrupole moment (field-independent basis, Debye-Ang):
   XX=            -34.3911   YY=            -29.4102   ZZ=            -31.4547
   XY=              0.0000   XZ=              0.0000   YZ=              0.0000

 8\CCSD(T)=-958.6813573\RMSD=6.776e-09\PG=C01 [X(C1H2Cl2)]\\@
 Normal termination of Gaussian 09 at Thu Jan 11 15:52:06 2018.
